/*--------------------------------*- C++ -*----------------------------------*\
| =========                 |                                                 |
| \\      /  F ield         | OpenFOAM: The Open Source CFD Toolbox           |
|  \\    /   O peration     | Version:  2312                                  |
|   \\  /    A nd           | Website:  www.openfoam.com                      |
|    \\/     M anipulation  |                                                 |
\*---------------------------------------------------------------------------*/
FoamFile
{
    version     2.0;
    format      ascii;
    arch        "LSB;label=32;scalar=64";
    class       volScalarField;
    location    "0.05";
    object      eddyvisc;
}
// * * * * * * * * * * * * * * * * * * * * * * * * * * * * * * * * * * * * * //

dimensions      [0 2 -1 0 0 0 0];

internalField   uniform 0;

boundaryField
{
    inletWater
    {
        type            calculated;
        value           uniform 0.0773509;
    }
    outletWater
    {
        type            zeroGradient;
    }
    freeSurface
    {
        type            zeroGradient;
    }
    leftSide
    {
        type            nutURoughWallFunction;
        Ks              uniform 0.00716277;
        Cs              uniform 0.5;
        roughnessHeight 0.00716277;
        roughnessConstant 0.5;
        roughnessFactor 1;
        value           uniform 0;
    }
    rightSide
    {
        type            nutURoughWallFunction;
        Ks              uniform 0.00716277;
        Cs              uniform 0.5;
        roughnessHeight 0.00716277;
        roughnessConstant 0.5;
        roughnessFactor 1;
        value           uniform 0;
    }
    bedWall
    {
        type            nutURoughWallFunction;
        Ks              uniform 0.00716277;
        Cs              uniform 0.5;
        roughnessHeight 0.00716277;
        roughnessConstant 0.5;
        roughnessFactor 1;
        value           uniform 0;
    }
}


// ************************************************************************* //
